% Model:              potentiostatic-3d.mph
% Version:            COMSOL 5.4.0.388
% Date:               Jul 19 2022, 17:37
% Dimension:          3
% Nodes:              28755
% Expressions:        1
% Description:        
% Length unit:        m
% X                       Y                        Z                        C (1) @ t=3
1                         0.04702195793504713      0.05754395957559883      1.0000008656732873
1                         0.042149569668213746     0.06107113238810728      1.0000009267655294
0.9915379738335018        0.03898903355888679      0.05453677347387913      0.9902295233113133
1                         0.04126163685661911      0.049513914598198865     1.000000858402771
1                         0.03416159520693293      0.05681481253664501      1.0000009166929869
0.9915379738335018        0.031888991909200616     0.06183767141232528      0.9902287271320823
0.9969363074229287        0.0033826941946558447    0.07544302198928471      0.9964689030787514
0.9938726148458574        0                        0.07717732607446715      0.9929344032967503
1                         0                        0.06711542919249112      1.000001522253448
0.9999999999999999        0                        0.08180186597441344      1.0000008441161634
0.9948526960835505        0                        0.06076238357263877      0.9940912840664499
1                         0                        0.051284633149291436     1.000000791436374
1                         0.009862889362793604     0.05473792591139444      1.0000008641503702
0.9915379738335018        0.02822110449337084      0.050960027489928575     0.9902741994770031
1                         0.023393666141416983     0.05323806655269446      1.0000009157343033
0.987745229691715         0                        0.07255278617452082      0.9858884494430351
1                         0.05391522251354587      0.022485703474106167     1.00000119557149
1                         0.06246724648444446      0.030026368250135767     1.000001002666753
0.9895767402703759        0.05730520095423984      0.02951863085660341      0.987992229668376
1                         0.04989900998483282      0.031817509699441616     1.0000008909971014
0.9915379738335018        0.03856640444241825      0.042448897160228205     0.9902712396649584
1                         0.019725778725587208     0.04236042263029775      1.000000931977072
1                         0.04134698601393422      0.024276844923412012     1.0000007980917827
0.9895767402703759        0.04875317698334125      0.021977966080573806     0.9880465243419131
1                         0.030536382369760712     0.033318633776854886     1.0000008016928705
0.9915379738335018        0.0277984753769023       0.038872151176277646     0.9903090732879858
1                         0.041304311435276665     0.03689537976080544      1.0000009570282844
1                         0.020182743536331222     0.03117137872096717      1.0000009064597284
1                         0.06648345901315753      0.02069456202480032      1.0000009319253567
0.9895767402703759        0.061321413482952905     0.02018682463126796      0.9880065295361702
0.9915379738335018        0.047161102991974395     0.037371027098864376     0.9902598021969206
1                         0.049856335406175255     0.04443604453683504      1.000000924519714
1                         0.058451033955731396     0.039358174475471214     1.0000006803656332
0.9936865053062562        0.06716383035825661      0.038472969328364234     0.9926771605920403
1                         0.0674976081306895       0.04013686746827067      1.0000010272018258
0.9882232515834533        0.06808252866300694      0.04311696943168397      0.9863082634191687
1                         0.05189434620188052      0.05401678676309038      1.0000010894542306
0.9882232515834533        0.05044125593849269      0.047416146500248335     0.9863803367539967
0.9882232515834533        0.05903595448804884      0.042338276438884506     0.9863624374691928
0.9915379738335018        0.0443053882315175       0.05678820955632488      0.9902008314810865
0.9915379738335018        0.04474935463731482      0.0625668184512791       0.9901761132161049
0.9932613848207861        0.06854569858402154      0.030653117094083422     0.9922041226505388
1                         0.07151382065940257      0.030805061242935226     1.0000009041141185
0.9932613848207861        0.0725619111127346       0.021321310868747972     0.992216928340348
1                         0.07823325119946953      0.020293949406481406     1.0000009732360675
0.9932613848207861        0.07875571659014269      0.010974029856347814     0.9922202077246204
1                         0.07267726449056561      0.01034728101240016      1.0000010256894867
1                         0.08442705667687761      0.009946668394081246     1.0000009202474371
1                         0.07887106996797368      0                        1.0000005481023209
1                         0.05765466728030854      0.062046831740490346     1.0000009388161133
1                         0.05278227901347515      0.0655740045529988       1.0000008874525212
0.9915379738335018        0.0496217429041482       0.05903964563877064      0.9901690470515788
1                         0.035049528018527565     0.06837203032655344      1.000000845436337
0.9915379738335018        0.03987696637048142      0.06609399126378755      0.9901833696243186
1                         0.04303750247980838      0.07262835017801571      1.0000010574136982
1                         0.027061553557246758     0.06411571047509117      1.0000008439614252
0.9906216830003014        0.009179107565288619     0.05887343436190584      0.9892358443779504
0.9906216830003014        0.022709884343911996     0.05737357500320586      0.9892153541283623
1                         0.013530776778623379     0.06561556983379115      1.0000006588190058
0.9938726148458574        0.0067653883893116894    0.06908417800415598      0.9929482025150685
0.9867094650043926        0                        0.06485122860564373      0.9847291207588232
1                         0.011566655686444542     0.07691100971505282      1.000000676607269
0.9917465815535869        0.03261738811279218      0.07344036055434944      0.9904287880855878
1                         0.02509743246506792      0.07541115035635285      1.000000912679026
0.989745905622651         0.02307408244570778      0.07224664368508514      0.9881526847846202
0.9969363074229287        0.0033826941946558447    0.09012945877120704      0.9964561181997987
1                         0.005783327843222271     0.0866996562356943       1.0000008730383898
1                         0                        0.09648830275633577      1.0000013003496806
0.987745229691715         0                        0.08723922295644315      0.9858359040818067
0.9846815371146437        0.0033826941946558447    0.08088037897131442      0.9823234569858356
0.9944146471589159        0.031144716228570433     0.0160603786366713       0.9936276898455839
1                         0.03486970074760981      0.012138422461706006     1.0000009153877285
0.9888292943178318        0.04164972411006563      0.012138422461706006     0.9872331432225934
1                         0.04800388982239812      0.012138422461706006     1.000000961525661
1                         0.04152660455607371      0                        1.0000009355235362
1.0000000000000002        0.05466079363086203      0                        1.0000007826064605
0.9888292943178321        0.048306627918529535     0                        0.9872208311869403
0.9915379738335018        0.028255440187646315     0.027683107266947064     0.9903332628352705
1                         0.06057212632200978      0.01034728101240016      1.0000009007043595
0.9891328916165266        0.06656534475452186      0.01034728101240016      0.9874985473605494
1                         0.06676593179941785      0                        1.0000008154124715
0.9895767402703759        0.05541008079180515      0.009839543618867802     0.9880472701740601
0.9891328916165266        0.07275915023192993      0                        0.9874854957825185
0.9891328916165267        0.060654012063374105     0                        0.9875269760991277
0.9866930110999779        0.07828109820483854      0.005487014928173905     0.9846513715030398
0.9899956870885942        0.08467663237322384      0                        0.9884431804696377
0.9791285787051209        0.0785647126371801       0                        0.9759408628769143
0.9916285359546901        0.08171617448168325      0.005487014928173907     0.9903339547393586
0.9779621859343586        0.05429984635104161      0                        0.9747672646495816
0.9897053921671011        0                        0.05440933795278642      0.9882042627429489
1                         0.004931444681396802     0.045095881508743094     1.0000010895893594
1                         0                        0.03545383710609175      1.0000008701944505
0.9897053921671011        0.009862889362793604     0.042031834671689736     0.9882357961204383
1                         0.009862889362793604     0.03890712986819475      1.0000009480452694
0.9820203065045433        0.004589553782644309     0.060730231190351085     0.979368165292661
0.9897053921671011        0.004931444681396802     0.04822058631223808      0.9882216030595894
0.9830759476670037        0.035871172028217393     0.03538387972225754      0.9806043344214072
0.9812433660006028        0.018358215130577237     0.05063143953132056      0.97850285530655
0.98058207985025          0.0067653883893116894    0.06681997741730858      0.9776789368675641
0.9734189300087852        0                        0.06258702801879633      0.9695091974393006
0.9754904593834299        0                        0.07799014315655052      0.9717604651530503
0.9899250256813543        0.009862889362793604     0.031468919734424325     0.9885131068517257
1                         0.010319854173537618     0.02771808595886417      1.0000009225978397
0.9899250256813543        0                        0.02801562697232132      0.988524535417555
1                         0                        0.017726918553045874     1.000000732129896
0.9848080948482231        0.020052681656644        0.0329149753384135       0.9826572311560289
1                         0.020639708347075236     0.01998233481163659      1.0000009499520037
0.9899250256813543        0.010319854173537618     0.02027987582509374      0.9885335582083761
1                         0.010319854173537618     0.009991167405818294     1.0000009178021194
0.9999999999999999        0                        0.008863459276522937     1.0000009617079746
1                         0                        0                        1.0000010262120578
0.9899250256813543        0                        0.010288708419275445     0.9885492855967597
1                         0.08326361284571457      0.03040444862461631      1.000000994245038
0.9932613848207861        0.08431170329904661      0.02092069825042906      0.9921913139563449
0.9932613848207861        0.07759227275897965      0.03143181008688288      0.9921781587441018
1                         0.0765441823056476       0.04091556046107013      1.000000960558085
0.9873730106125126        0.07587662676078183      0.037587764181257255     0.9853140273899141
0.9941116257917266        0.07231335548432727      0.04201626494637705      0.9931457412740963
0.995768986916751         0.05607439922564506      0.05877965228337627      0.9950701692097202
0.9836378190052666        0.048362817349114774     0.06619621662535981      0.9809462413914951
0.9920998451717647        0.05639574172527512      0.0692034027270795       0.990747193757127
1                         0.06136227376513568      0.06938563958326022      1.000000984732497
0.9920998451717647        0.05152335345844172      0.07273057553958796      0.9907567989708147
1                         0.06252705554714193      0.058519658927981895     1.0000008451385793
1                         0.06953561892639476      0.049717609694526016     1.0000007367288466
0.9935865407421834        0.07427198746216093      0.05080406364243224      0.9924941556758892
0.9882232515834533        0.0610739652837541       0.05191901866513985      0.9862919951161263
0.9935865407421834        0.07389963139781369      0.06720913716187647      0.9924222706232804
1                         0.07301778346570398      0.05841709210716664      1.000000937334989
1                         0.0757994701769531       0.0737257074999586       1.000000831863659
0.9920998451717647        0.0612681299921085       0.06567622991457106      0.9907387583400681
0.9920998451717647        0.06790433730701409      0.07327925420055942      0.9906648084609447
1                         0.08998304338578153      0.01989333678816249      1.0000009458979087
0.9932613848207861        0.0912892436317479       0.026774597776965114     0.9921612378577366
0.9999999999999998        0.09048068734149224      0                        1.0000009333828987
1                         0.09603667405039618      0.009946668394081246     1.0000007188626823
0.9999999999999999        0.10209030471501082      0                        1.0000010175035405
0.9899956870885942        0.09628624974674241      0                        0.9884137255758573
0.9899956870885942        0.0932594344144351       0.004973334197040623     0.9884186453660603
0.9899956870885942        0.09023261908212776      0.009946668394081246     0.9884195752151361
0.993261384820786         0.10121201715472339      0.009716587529582708     0.9921826348055587
0.9932613848207861        0.09515838649010874      0.019663255923663955     0.9921733874125581
1                         0.09933386295392521      0.026394048108858332     1.0000010030536068
1                         0.09218833186487213      0.03200174845955352      1.0000009665403249
0.986522769641572         0.09259544387771428      0.03365585876576774      0.984270435871098
0.9799913741771885        0.09048219477847401      0                        0.9768670737422971
0.9832570719093803        0.08456127899539284      0.010974029856347814     0.9806480321799687
0.9766886981885721        0.08408666061008871      0.005487014928173905     0.9730899463331896
1                         0.06019749198312943      0.08025162023853855      1.000000775094826
0.9935457921766129        0.04829127612097098      0.08071409698148946      0.9924366274809163
1                         0.04415420621906509      0.08257325808828891      1.0000008822117752
0.9917465815535869        0.04060536257407299      0.07769668040581171      0.9903796775889266
1                         0.05273420097072562      0.08638489311855033      1.0000009178636051
1                         0.03308540692634873      0.07966747020781512      1.0000008064226913
0.9917465815535869        0.030653267020613346     0.08473580043561112      0.9904013858557607
1                         0.023133311372889084     0.08670659023761451      1.0000008338349293
0.9938726148458574        0.018332044075756233     0.07887975852671768      0.992915153941649
0.9711222167216618        0.012067966206326386     0.07047376772090364      0.9667781889435086
0.9653870599891864        0                        0.06824948590480304      0.9602728088385469
0.9642387033456247        0.006033983103163193     0.0721928557558567       0.9589055397445837
0.987745229691715         0.013530776778623379     0.07105292681582084      0.985878068263709
0.9895410561134348        0.005155730897031357     0.09543359747833621      0.9878869900388361
0.986875736368235         0                        0.0960831795246514       0.9848028164924085
0.9918111956410963        0.005155730897031357     0.0993047065215302       0.9905088524002613
0.991416015423558         0                        0.10382539761103934      0.9900458247537951
0.9832272110646544        0.005155730897031357     0.10664180137623379      0.9805440800260573
0.9914160154235581        0.008554957381799042     0.1094807206290723       0.9900323512808393
0.995708007711779         0.004277478690899521     0.11724036031453615      0.9950153946796512
1                         0.008554957381799042     0.11639947439620082      1.000000960125455
0.9999999999999999        0                        0.11074415137816787      1.000000892521174
1                         0.008554957381799042     0.10214362577436871      1.0000008429624854
1                         0.03917815844233527      0.08609281810318861      1.000000949853446
0.9917465815535869        0.041722066313329705     0.08764158831608491      0.9903398866209736
1                         0.011566655686444542     0.09159744649697514      1.0000009428972516
0.9938726148458574        0.0067653883893116894    0.0837706147860783       0.9929204892742073
0.9938726148458574        0.01254871623253396      0.08132518665639799      0.9929192941017007
0.9772862858051498        0.005155730897031357     0.0861845176784436       0.9737656797672377
0.9799516055503495        0.010311461794062714     0.0855349356321284       0.9768292264859012
0.9922063758586346        0.010311461794062714     0.09478401543202103      0.990968784429711
0.9961031879293173        0.02503587548480025      0.09326202384592433      0.995468002262435
0.9922063758586346        0.021878117480507255     0.08989315917266039      0.9909529342270392
1                         0.020121613068243584     0.09725276951500808      1.000000890113302
0.995708007711779         0.012832436072698563     0.10863983471073697      0.9950129126856099
1                         0.008554957381799042     0.10927155008528477      1.0000009697825563
0.9922063758586346        0.018866419175861758     0.10043933845005396      0.9909409416923638
0.9790821122268696        0.010311461794062714     0.09437889220033666      0.9757769072168185
0.9730247287815559        0.005155730897031357     0.08548212206664223      0.968861271418757
0.9660978520127621        0                        0.08542930850115606      0.9609052035872289
0.9674616777236502        0.012067966206326386     0.08189490796208349      0.9624633337569677
0.9737514727364699        0                        0.09567805629296704      0.9696358613058106
0.9689911769836737        0.008710496280659891     0.09455720332696385      0.9641325665720614
1                         0.0283924154812854       0                        1.0000011093615202
0.9888292943178318        0.03129608527663614      0.009991167405818294     0.9872643911629159
1                         0.014196207740642704     0                        1.0000009145228712
0.9897564393485085        0.010771601430415802     0                        0.9883573120322051
0.9888292943178318        0.03517243884374122      0                        0.9872597918609005
0.9897564393485085        0.02109145560395342      0.009991167405818294     0.9883406314174806
0.9897564393485085        0.01593152851718461      0.004995583702909147     0.9883508954552999
0.9776585886356638        0.04195246220619704      0                        0.9745004217655634
0.9832439414767478        0.036624273741416594     0.004995583702909147     0.9808876502874126
0.9784060345882077        0.049055915079472656     0.009839543618867802     0.9752968380152428
0.9785857336663404        0.03174783253351432      0                        0.9756101934050465
0.9687302208111275        0.055013534951256715     0.009839543618867802     0.9642072204972728
0.9679827748585836        0.0479100820779811       0                        0.9634438934466948
0.9782657832330532        0.06664723049588618      0                        0.9750293198451494
0.9787096318869024        0.061403299224317226     0.009839543618867802     0.9755602539000243
0.9857635840269197        0.07270147354301443      0.005487014928173907     0.9836045730817775
0.9701203244677639        0.08361204222478458      0                        0.9655424285004053
0.962565560298327         0.0847936948756115       0.005800389350147734     0.9568482188425997
0.968354763285337         0.09268796376363196      0                        0.9634368799720663
0.9733860221999557        0.07769112644170341      0.01097402985634781      0.9693183669136048
0.9682863721572783        0.06025746622282567      0                        0.9636675931649514
0.9669583985159045        0.06600082896493177      0.010003684073888507     0.9620678764809479
0.9681079637558003        0.06884769452421122      0.0050018420369442535    0.9633699838278867
0.979410784334202         0                        0.04170324671308172      0.9764975777825498
0.9850162336672517        0.004589553782644309     0.05028834053749378      0.9828516611276742
0.977331148004694         0.009179107565288619     0.05660923377505844      0.974017989928414
0.9796304178484554        0                        0.031140331775816304     0.9768005688744276
0.9821094395912126        0.010026340828322        0.037309111025747604     0.9795858199470503
0.974513487015324         0.010189792293850397     0.03258638737980548      0.970966846448279
0.9690771875010211        0.007598839510625144     0.028420934883952843     0.9648315487396686
0.9608238295407885        0.009025628430775605     0.06684572267353792      0.95505987936108
0.9636946621161933        0                        0.05739550742453975      0.9584676760185373
0.9688556995603872        0.009025628430775605     0.061183264787531194     0.9642909731368282
0.9718516267230957        0.009025628430775605     0.05074137413467389      0.9678081123712472
0.9666905892789015        0                        0.04695361677168243      0.9619844877777859
0.9688575539867677        0.007598839510625144     0.03898384982121826      0.9645061010817196
0.9629110104733483        0.004512814215387803     0.05147268048247852      0.9576402415297072
0.9573551899695876        0                        0.07391194379080976      0.95103840233037
0.963090346702063         0.012067966206326386     0.07613622560691034      0.957513513860582
0.9556627920965942        0                        0.06305796531054646      0.9492670986059488
0.9506559832234883        0.008872149296262595     0.060565775205747366     0.9436071956420304
0.9685204583329237        0.04135581569079931      0.013180819627253797     0.9640848904637522
0.9798500513627088        0                        0.02057741683855089      0.9770893718507746
0.9823290731054659        0.010026340828322        0.026746196088482194     0.9798777708430656
0.9848032453556086        0.005385800715207901     0.010288708419275445     0.9827311062125086
0.9747331205295775        0.010189792293850397     0.022023472442540066     0.9712689005189286
0.9796814650298629        0.010771601430415802     0.010288708419275445     0.9769120421909468
0.981141740571301         0.010771601430415802     0                        0.9785769310816619
0.9827706024455849        0                        0                        0.9804318524494823
0.9725270417940934        0.010771601430415802     0                        0.9688172492973549
0.9726956281269392        0                        0.010288708419275445     0.9690090592560503
1                         0.09439362034396273      0.04411016013094454      1.0000010461818005
0.9932613848207861        0.08456981309168093      0.037285709613418934     0.992139142521868
0.9935865407421834        0.08223862866136614      0.0472016889431729       0.9924846385610979
1                         0.08350851138426602      0.05831452528635139      1.0000008971528538
0.9841996903435295        0.060009204437075074     0.07283280090116022      0.9814229964323239
0.9871730814843669        0.07199979261867427      0.06069256682379435      0.9849188504440554
1                         0.0725941230923017       0.08808015627052782      1.0000007252802137
1                         0.08459260651429291      0.08318784048063385      1.0000009592989654
0.991268177220132         0.07602384657772833      0.08455177666032154      0.9895597104176372
1                         0.08331173968460144      0.09477937141773501      1.000000941771824
0.9962063103121777        0.06345225766086285      0.08884709256273118      0.9954949645844825
0.9915104410053595        0.08246770976135222      0.0735255797050272       0.9898789135095428
1                         0.09037151369853694      0.07195436248128917      1.000000753396088
1                         0.0960534243637836       0.08236182033714028      1.0000008794495416
0.9945305514452906        0.09951528355244546      0.07836675227352147      0.9933997896995967
0.9544552913879809        0.051631764172872505     0.05296396931346516      0.9473340574986546
0.952478450409061         0.05408995566577652      0.05722201437982151      0.944879067539205
0.94639841579043          0.054148401855560066     0.050788698549374255     0.9380903674393487
0.9477630107023967        0.04518562926573372      0.052679655127531075     0.9398525532422112
0.9598778169461224        0.05675272499165064      0.057569409286659955     0.9533454285864484
0.9593215818321946        0.0552161295667013       0.06462548331733754      0.9525645072605611
0.9668626275584321        0.05271473389830013      0.0638602362441955       0.9614032632012153
0.9599020329770511        0.06178517982119015      0.05851292376615993      0.9532221822493502
0.9528930063338128        0.06079071608500115      0.05127858232912441      0.9453393267649228
0.9566314127314799        0.048991157218418        0.048531476411623156     0.9499948289441749
0.9601318235224451        0.05151297215020241      0.05640778477732454      0.9537901902267754
0.9646697547503595        0.06020579555268371      0.048298480365711105     0.9590219940794169
0.9531848029729312        0.06864223045350977      0.04540139199817249      0.9456443644199145
0.9587466582510302        0.06856154298434633      0.04410632854040083      0.9521040349192516
0.9542720100662843        0.06307257175948926      0.03564297523845071      0.9472790851025292
0.948483484948095         0.05326463553537843      0.042242298779427256     0.9407358593935127
1                         0.1034684250387447       0.07354830249765476      1.0000007355272158
1                         0.10987019177740608      0.0156647927177399       1.000000966610002
0.9932613848207861        0.09818520182241608      0.01468992172662333      0.9921792192273474
0.9920459387684768        0.10990960801254385      0.00783239635886995      0.9907640678023424
1                         0.1135451523575054       0                        1.0000009443632436
0.9935865407421834        0.0937345567762585       0.056983069900894634     0.9924031426853861
1                         0.0995360385354323       0.06047832237651359      1.0000009030227028
0.9936994789890565        0.10043661619134073      0.04673388754457571      0.9925741573057247
0.9938200185366138        0.12024641131301231      0.010443911540483351     0.9928156609835753
1                         0.125                    0.01177714055964849      1.0000009179563718
1                         0.125                    0                        1.0000009641952887
0.9888139366370694        0.125                    0.006813467262673537     0.9870033393362849
0.9920459387684768        0.1174745121238408       0                        0.9907633130881398
0.9840918775369537        0.1099490242476816       0                        0.9815432930740328
0.9832570719093803        0.09540796218645499      0.009716587529582708     0.9806041991362197
0.973289821415199         0.09975735194173932      0                        0.9690799190698174
0.9772901920139001        0.10892382897670727      0.009207122981484505     0.9736467816435285
0.9752399403340175        0.09919041424210347      0.009207122981484505     0.97131452021729
0.965735057245762         0.10093900459256624      0.005800389350147734     0.9603481784599732
0.986522769641572         0.10033372959443597      0.019433175059165416     0.9843340606996016
0.9932613848207861        0.10450920605825244      0.026163967244359793     0.9921409787842974
1                         0.10927743714973749      0.024279776073647036     1.000000846016761
1                         0.1086846825220689       0.03289475942955417      1.000001203288726
0.9932613848207861        0.10064006319989159      0.03327530909766095      0.9921204670836484
0.9938200185366138        0.11208875257404677      0.026891291255260436     0.9927824382856357
1                         0.11684234126103446      0.028224520274425575     1.0000008926645636
0.9936994789890565        0.10758214728039381      0.04112618719388053      0.9925891702056812
0.9932453742241444        0.1144655469175406       0.032622305878651545     0.9920870998520932
0.9648818458383146        0.09284550008012786      0.011600778700295468     0.9593948050558336
0.956718152393485         0.09489373274878987      0                        0.9500524605621421
0.9665882686532095        0.10903250910500462      0                        0.9612978182997504
0.960033031224181         0.1056557821705896       0.0065908903313620665    0.9537476933401438
1                         0.11126108824875282      0.05089149844455482      1.0000009230695215
0.9870915843532257        0.053545049762133576     0.0887998437849632       0.9847736520469634
1                         0.06086104191737358      0.09756256414563977      1.0000010053060897
0.9897521024887905        0.06012603655036493      0.09312120433594351      0.9878350891967667
0.9941414876920506        0.014439079860836913     0.11639947439620082      0.9931845043618565
1                         0                        0.125                    0.9999999875060498
0.991416015423558         0                        0.11808124623287147      0.9900315895832372